# vtk DataFile Version 2.0
EXAMPLE
ASCII
DATASET UNSTRUCTURED_GRID


POINTS 241 float
0 0 0
0.05 0 0
0.1 0 0
0.15 0 0
0.2 0 0
0.25 0 0
0.3 0 0
0.35 0 0
0.4 0 0
0.45 0 0
0.5 0 0
0 0.05 0
0.05 0.05 0
0.1 0.05 0
0.15 0.05 0
0.2 0.05 0
0.25 0.05 0
0.3 0.05 0
0.35 0.05 0
0.4 0.05 0
0.45 0.05 0
0.5 0.05 0
0 0.1 0
0.05 0.1 0
0.1 0.1 0
0.15 0.1 0
0.2 0.1 0
0.25 0.1 0
0.3 0.1 0
0.35 0.1 0
0.4 0.1 0
0.45 0.1 0
0.5 0.1 0
0 0.15 0
0.05 0.15 0
0.1 0.15 0
0.15 0.15 0
0.2 0.15 0
0.25 0.15 0
0.3 0.15 0
0.35 0.15 0
0.4 0.15 0
0.45 0.15 0
0.5 0.15 0
0 0.2 0
0.05 0.2 0
0.1 0.2 0
0.15 0.2 0
0.2 0.2 0
0.25 0.2 0
0.3 0.2 0
0.35 0.2 0
0.4 0.2 0
0.45 0.2 0
0.5 0.2 0
0 0.25 0
0.05 0.25 0
0.1 0.25 0
0.15 0.25 0
0.2 0.25 0
0.25 0.25 0
0.3 0.25 0
0.35 0.25 0
0.4 0.25 0
0.45 0.25 0
0.5 0.25 0
0 0.3 0
0.05 0.3 0
0.1 0.3 0
0.15 0.3 0
0.2 0.3 0
0.25 0.3 0
0.3 0.3 0
0.35 0.3 0
0.4 0.3 0
0.45 0.3 0
0.5 0.3 0
0 0.35 0
0.05 0.35 0
0.1 0.35 0
0.15 0.35 0
0.2 0.35 0
0.25 0.35 0
0.3 0.35 0
0.35 0.35 0
0.4 0.35 0
0.45 0.35 0
0.5 0.35 0
0 0.4 0
0.05 0.4 0
0.1 0.4 0
0.15 0.4 0
0.2 0.4 0
0.25 0.4 0
0.3 0.4 0
0.35 0.4 0
0.4 0.4 0
0.45 0.4 0
0.5 0.4 0
0 0.45 0
0.05 0.45 0
0.1 0.45 0
0.15 0.45 0
0.2 0.45 0
0.25 0.45 0
0.3 0.45 0
0.35 0.45 0
0.4 0.45 0
0.45 0.45 0
0.5 0.45 0
0 0.5 0
0.05 0.5 0
0.1 0.5 0
0.15 0.5 0
0.2 0.5 0
0.25 0.5 0
0.3 0.5 0
0.35 0.5 0
0.4 0.5 0
0.45 0.5 0
0.5 0.5 0
0.55 0.5 0
0.6 0.5 0
0.65 0.5 0
0.7 0.5 0
0.75 0.5 0
0.8 0.5 0
0.85 0.5 0
0.9 0.5 0
0.95 0.5 0
1 0.5 0
0.5 0.55 0
0.55 0.55 0
0.6 0.55 0
0.65 0.55 0
0.7 0.55 0
0.75 0.55 0
0.8 0.55 0
0.85 0.55 0
0.9 0.55 0
0.95 0.55 0
1 0.55 0
0.5 0.6 0
0.55 0.6 0
0.6 0.6 0
0.65 0.6 0
0.7 0.6 0
0.75 0.6 0
0.8 0.6 0
0.85 0.6 0
0.9 0.6 0
0.95 0.6 0
1 0.6 0
0.5 0.65 0
0.55 0.65 0
0.6 0.65 0
0.65 0.65 0
0.7 0.65 0
0.75 0.65 0
0.8 0.65 0
0.85 0.65 0
0.9 0.65 0
0.95 0.65 0
1 0.65 0
0.5 0.7 0
0.55 0.7 0
0.6 0.7 0
0.65 0.7 0
0.7 0.7 0
0.75 0.7 0
0.8 0.7 0
0.85 0.7 0
0.9 0.7 0
0.95 0.7 0
1 0.7 0
0.5 0.75 0
0.55 0.75 0
0.6 0.75 0
0.65 0.75 0
0.7 0.75 0
0.75 0.75 0
0.8 0.75 0
0.85 0.75 0
0.9 0.75 0
0.95 0.75 0
1 0.75 0
0.5 0.8 0
0.55 0.8 0
0.6 0.8 0
0.65 0.8 0
0.7 0.8 0
0.75 0.8 0
0.8 0.8 0
0.85 0.8 0
0.9 0.8 0
0.95 0.8 0
1 0.8 0
0.5 0.85 0
0.55 0.85 0
0.6 0.85 0
0.65 0.85 0
0.7 0.85 0
0.75 0.85 0
0.8 0.85 0
0.85 0.85 0
0.9 0.85 0
0.95 0.85 0
1 0.85 0
0.5 0.9 0
0.55 0.9 0
0.6 0.9 0
0.65 0.9 0
0.7 0.9 0
0.75 0.9 0
0.8 0.9 0
0.85 0.9 0
0.9 0.9 0
0.95 0.9 0
1 0.9 0
0.5 0.95 0
0.55 0.95 0
0.6 0.95 0
0.65 0.95 0
0.7 0.95 0
0.75 0.95 0
0.8 0.95 0
0.85 0.95 0
0.9 0.95 0
0.95 0.95 0
1 0.95 0
0.5 1 0
0.55 1 0
0.6 1 0
0.65 1 0
0.7 1 0
0.75 1 0
0.8 1 0
0.85 1 0
0.9 1 0
0.95 1 0
1 1 0

CELLS 200 1000
4 68 69 80 79
4 81 82 93 92
4 80 81 92 91
4 79 80 91 90
4 78 79 90 89
4 77 78 89 88
4 75 76 87 86
4 74 75 86 85
4 73 74 85 84
4 72 73 84 83
4 71 72 83 82
4 70 71 82 81
4 69 70 81 80
4 82 83 94 93
4 67 68 79 78
4 66 67 78 77
4 64 65 76 75
4 63 64 75 74
4 62 63 74 73
4 61 62 73 72
4 60 61 72 71
4 59 60 71 70
4 58 59 70 69
4 57 58 69 68
4 56 57 68 67
4 95 96 107 106
4 108 109 120 119
4 107 108 119 118
4 106 107 118 117
4 105 106 117 116
4 104 105 116 115
4 103 104 115 114
4 102 103 114 113
4 101 102 113 112
4 100 101 112 111
4 99 100 111 110
4 97 98 109 108
4 96 97 108 107
4 55 56 67 66
4 94 95 106 105
4 93 94 105 104
4 92 93 104 103
4 91 92 103 102
4 90 91 102 101
4 89 90 101 100
4 88 89 100 99
4 86 87 98 97
4 85 86 97 96
4 84 85 96 95
4 83 84 95 94
4 13 14 25 24
4 26 27 38 37
4 25 26 37 36
4 24 25 36 35
4 23 24 35 34
4 22 23 34 33
4 20 21 32 31
4 19 20 31 30
4 18 19 30 29
4 17 18 29 28
4 16 17 28 27
4 15 16 27 26
4 14 15 26 25
4 27 28 39 38
4 12 13 24 23
4 11 12 23 22
4 9 10 21 20
4 8 9 20 19
4 7 8 19 18
4 6 7 18 17
4 5 6 17 16
4 4 5 16 15
4 3 4 15 14
4 2 3 14 13
4 1 2 13 12
4 40 41 52 51
4 53 54 65 64
4 52 53 64 63
4 51 52 63 62
4 50 51 62 61
4 49 50 61 60
4 48 49 60 59
4 47 48 59 58
4 46 47 58 57
4 45 46 57 56
4 44 45 56 55
4 42 43 54 53
4 41 42 53 52
4 0 1 12 11
4 39 40 51 50
4 38 39 50 49
4 37 38 49 48
4 36 37 48 47
4 35 36 47 46
4 34 35 46 45
4 33 34 45 44
4 31 32 43 42
4 30 31 42 41
4 29 30 41 40
4 28 29 40 39
4 188 189 200 199
4 201 202 213 212
4 200 201 212 211
4 199 200 211 210
4 198 199 210 209
4 197 198 209 208
4 195 196 207 206
4 194 195 206 205
4 193 194 205 204
4 192 193 204 203
4 191 192 203 202
4 190 191 202 201
4 189 190 201 200
4 202 203 214 213
4 187 188 199 198
4 186 187 198 197
4 184 185 196 195
4 183 184 195 194
4 182 183 194 193
4 181 182 193 192
4 180 181 192 191
4 179 180 191 190
4 178 179 190 189
4 177 178 189 188
4 176 177 188 187
4 215 216 227 226
4 228 229 240 239
4 227 228 239 238
4 226 227 238 237
4 225 226 237 236
4 224 225 236 235
4 223 224 235 234
4 222 223 234 233
4 221 222 233 232
4 220 221 232 231
4 219 220 231 230
4 217 218 229 228
4 216 217 228 227
4 175 176 187 186
4 214 215 226 225
4 213 214 225 224
4 212 213 224 223
4 211 212 223 222
4 210 211 222 221
4 209 210 221 220
4 208 209 220 219
4 206 207 218 217
4 205 206 217 216
4 204 205 216 215
4 203 204 215 214
4 133 134 145 144
4 146 147 158 157
4 145 146 157 156
4 144 145 156 155
4 143 144 155 154
4 142 143 154 153
4 140 141 152 151
4 139 140 151 150
4 138 139 150 149
4 137 138 149 148
4 136 137 148 147
4 135 136 147 146
4 134 135 146 145
4 147 148 159 158
4 132 133 144 143
4 131 132 143 142
4 129 130 141 140
4 128 129 140 139
4 127 128 139 138
4 126 127 138 137
4 125 126 137 136
4 124 125 136 135
4 123 124 135 134
4 122 123 134 133
4 121 122 133 132
4 160 161 172 171
4 173 174 185 184
4 172 173 184 183
4 171 172 183 182
4 170 171 182 181
4 169 170 181 180
4 168 169 180 179
4 167 168 179 178
4 166 167 178 177
4 165 166 177 176
4 164 165 176 175
4 162 163 174 173
4 161 162 173 172
4 120 121 132 131
4 159 160 171 170
4 158 159 170 169
4 157 158 169 168
4 156 157 168 167
4 155 156 167 166
4 154 155 166 165
4 153 154 165 164
4 151 152 163 162
4 150 151 162 161
4 149 150 161 160
4 148 149 160 159

CELL_TYPES 200
9
9
9
9
9
9
9
9
9
9
9
9
9
9
9
9
9
9
9
9
9
9
9
9
9
9
9
9
9
9
9
9
9
9
9
9
9
9
9
9
9
9
9
9
9
9
9
9
9
9
9
9
9
9
9
9
9
9
9
9
9
9
9
9
9
9
9
9
9
9
9
9
9
9
9
9
9
9
9
9
9
9
9
9
9
9
9
9
9
9
9
9
9
9
9
9
9
9
9
9
9
9
9
9
9
9
9
9
9
9
9
9
9
9
9
9
9
9
9
9
9
9
9
9
9
9
9
9
9
9
9
9
9
9
9
9
9
9
9
9
9
9
9
9
9
9
9
9
9
9
9
9
9
9
9
9
9
9
9
9
9
9
9
9
9
9
9
9
9
9
9
9
9
9
9
9
9
9
9
9
9
9
9
9
9
9
9
9
9
9
9
9
9
9
9
9
9
9
9
9

CELL_DATA 200
SCALARS DOMAIN int 1
LOOKUP_TABLE default
0
0
0
0
0
0
0
0
0
0
0
0
0
0
0
0
0
0
0
0
0
0
0
0
0
0
0
0
0
0
0
0
0
0
0
0
0
0
0
0
0
0
0
0
0
0
0
0
0
0
0
0
0
0
0
0
0
0
0
0
0
0
0
0
0
0
0
0
0
0
0
0
0
0
0
0
0
0
0
0
0
0
0
0
0
0
0
0
0
0
0
0
0
0
0
0
0
0
0
0
3
3
3
3
3
3
3
3
3
3
3
3
3
3
3
3
3
3
3
3
3
3
3
3
3
3
3
3
3
3
3
3
3
3
3
3
3
3
3
3
3
3
3
3
3
3
3
3
3
3
3
3
3
3
3
3
3
3
3
3
3
3
3
3
3
3
3
3
3
3
3
3
3
3
3
3
3
3
3
3
3
3
3
3
3
3
3
3
3
3
3
3
3
3
3
3
3
3
3
3
SCALARS CLUSTER int 1
LOOKUP_TABLE default
0
0
0
0
0
0
0
0
0
0
0
0
0
0
0
0
0
0
0
0
0
0
0
0
0
0
0
0
0
0
0
0
0
0
0
0
0
0
0
0
0
0
0
0
0
0
0
0
0
0
0
0
0
0
0
0
0
0
0
0
0
0
0
0
0
0
0
0
0
0
0
0
0
0
0
0
0
0
0
0
0
0
0
0
0
0
0
0
0
0
0
0
0
0
0
0
0
0
0
0
0
0
0
0
0
0
0
0
0
0
0
0
0
0
0
0
0
0
0
0
0
0
0
0
0
0
0
0
0
0
0
0
0
0
0
0
0
0
0
0
0
0
0
0
0
0
0
0
0
0
0
0
0
0
0
0
0
0
0
0
0
0
0
0
0
0
0
0
0
0
0
0
0
0
0
0
0
0
0
0
0
0
0
0
0
0
0
0
0
0
0
0
0
0
0
0
0
0
0
0
SCALARS MPI int 1
LOOKUP_TABLE default
0
0
0
0
0
0
0
0
0
0
0
0
0
0
0
0
0
0
0
0
0
0
0
0
0
0
0
0
0
0
0
0
0
0
0
0
0
0
0
0
0
0
0
0
0
0
0
0
0
0
0
0
0
0
0
0
0
0
0
0
0
0
0
0
0
0
0
0
0
0
0
0
0
0
0
0
0
0
0
0
0
0
0
0
0
0
0
0
0
0
0
0
0
0
0
0
0
0
0
0
0
0
0
0
0
0
0
0
0
0
0
0
0
0
0
0
0
0
0
0
0
0
0
0
0
0
0
0
0
0
0
0
0
0
0
0
0
0
0
0
0
0
0
0
0
0
0
0
0
0
0
0
0
0
0
0
0
0
0
0
0
0
0
0
0
0
0
0
0
0
0
0
0
0
0
0
0
0
0
0
0
0
0
0
0
0
0
0
0
0
0
0
0
0
0
0
0
0
0
0
